         100
timestep  0 boxsize      235.0000        0.0000        0.0000
Si      0.000000000         0.000000000         0.000000000         0.000000000    
Si      2.349999905         0.000000000         0.000000000         0.000000000    
Si      4.699999809         0.000000000         0.000000000         0.000000000    
Si      7.049999714         0.000000000         0.000000000         0.000000000    
Si      9.399999619         0.000000000         0.000000000         0.000000000    
Si      11.74999952         0.000000000         0.000000000         0.000000000    
Si      14.09999943         0.000000000         0.000000000         0.000000000    
Si      16.44999933         0.000000000         0.000000000         0.000000000    
Si      18.79999924         0.000000000         0.000000000         0.000000000    
Si      21.14999914         0.000000000         0.000000000         0.000000000    
Si      23.49999905         0.000000000         0.000000000         0.000000000    
Si      25.84999895         0.000000000         0.000000000         0.000000000    
Si      28.19999886         0.000000000         0.000000000         0.000000000    
Si      30.54999876         0.000000000         0.000000000         0.000000000    
Si      32.89999866         0.000000000         0.000000000         0.000000000    
Si      35.24999857         0.000000000         0.000000000         0.000000000    
Si      37.59999847         0.000000000         0.000000000         0.000000000    
Si      39.94999838         0.000000000         0.000000000         0.000000000    
Si      42.29999828         0.000000000         0.000000000         0.000000000    
Si      44.64999819         0.000000000         0.000000000         0.000000000    
Si      46.99999809         0.000000000         0.000000000         0.000000000    
Si      49.34999800         0.000000000         0.000000000         0.000000000    
Si      51.69999790         0.000000000         0.000000000         0.000000000    
Si      54.04999781         0.000000000         0.000000000         0.000000000    
Si      56.39999771         0.000000000         0.000000000         0.000000000    
Si      58.74999762         0.000000000         0.000000000         0.000000000    
Si      61.09999752         0.000000000         0.000000000         0.000000000    
Si      63.44999743         0.000000000         0.000000000         0.000000000    
Si      65.79999733         0.000000000         0.000000000         0.000000000    
Si      68.14999723         0.000000000         0.000000000         0.000000000    
Si      70.49999714         0.000000000         0.000000000         0.000000000    
Si      72.84999704         0.000000000         0.000000000         0.000000000    
Si      75.19999695         0.000000000         0.000000000         0.000000000    
Si      77.54999685         0.000000000         0.000000000         0.000000000    
Si      79.89999676         0.000000000         0.000000000         0.000000000    
Si      82.24999666         0.000000000         0.000000000         0.000000000    
Si      84.59999657         0.000000000         0.000000000         0.000000000    
Si      86.94999647         0.000000000         0.000000000         0.000000000    
Si      89.29999638         0.000000000         0.000000000         0.000000000    
Si      91.64999628         0.000000000         0.000000000         0.000000000    
Si      93.99999619         0.000000000         0.000000000         0.000000000    
Si      96.34999609         0.000000000         0.000000000         0.000000000    
Si      98.69999599         0.000000000         0.000000000         0.000000000    
Si      101.0499959         0.000000000         0.000000000         0.000000000    
Si      103.3999958         0.000000000         0.000000000         0.000000000    
Si      105.7499957         0.000000000         0.000000000         0.000000000    
Si      108.0999956         0.000000000         0.000000000         0.000000000    
Si      110.4499955         0.000000000         0.000000000         0.000000000    
Si      112.7999954         0.000000000         0.000000000         0.000000000    
Si      115.1499953         0.000000000         0.000000000         0.000000000    
Si      117.4999952         0.000000000         0.000000000         0.000000000    
Si      119.8499951         0.000000000         0.000000000         0.000000000    
Si      122.1999950         0.000000000         0.000000000         0.000000000    
Si      124.5499949         0.000000000         0.000000000         0.000000000    
Si      126.8999949         0.000000000         0.000000000         0.000000000    
Si      129.2499948         0.000000000         0.000000000         0.000000000    
Si      131.5999947         0.000000000         0.000000000         0.000000000    
Si      133.9499946         0.000000000         0.000000000         0.000000000    
Si      136.2999945         0.000000000         0.000000000         0.000000000    
Si      138.6499944         0.000000000         0.000000000         0.000000000    
Si      140.9999943         0.000000000         0.000000000         0.000000000    
Si      143.3499942         0.000000000         0.000000000         0.000000000    
Si      145.6999941         0.000000000         0.000000000         0.000000000    
Si      148.0499940         0.000000000         0.000000000         0.000000000    
Si      150.3999939         0.000000000         0.000000000         0.000000000    
Si      152.7499938         0.000000000         0.000000000         0.000000000    
Si      155.0999937         0.000000000         0.000000000         0.000000000    
Si      157.4499936         0.000000000         0.000000000         0.000000000    
Si      159.7999935         0.000000000         0.000000000         0.000000000    
Si      162.1499934         0.000000000         0.000000000         0.000000000    
Si      164.4999933         0.000000000         0.000000000         0.000000000    
Si      166.8499932         0.000000000         0.000000000         0.000000000    
Si      169.1999931         0.000000000         0.000000000         0.000000000    
Si      171.5499930         0.000000000         0.000000000         0.000000000    
Si      173.8999929         0.000000000         0.000000000         0.000000000    
Si      176.2499928         0.000000000         0.000000000         0.000000000    
Si      178.5999928         0.000000000         0.000000000         0.000000000    
Si      180.9499927         0.000000000         0.000000000         0.000000000    
Si      183.2999926         0.000000000         0.000000000         0.000000000    
Si      185.6499925         0.000000000         0.000000000         0.000000000    
Si      187.9999924         0.000000000         0.000000000         0.000000000    
Si      190.3499923         0.000000000         0.000000000         0.000000000    
Si      192.6999922         0.000000000         0.000000000         0.000000000    
Si      195.0499921         0.000000000         0.000000000         0.000000000    
Si      197.3999920         0.000000000         0.000000000         0.000000000    
Si      199.7499919         0.000000000         0.000000000         0.000000000    
Si      202.0999918         0.000000000         0.000000000         0.000000000    
Si      204.4499917         0.000000000         0.000000000         0.000000000    
Si      206.7999916         0.000000000         0.000000000         0.000000000    
Si      209.1499915         0.000000000         0.000000000         0.000000000    
Si      211.4999914         0.000000000         0.000000000         0.000000000    
Si      213.8499913         0.000000000         0.000000000         0.000000000    
Si      216.1999912         0.000000000         0.000000000         0.000000000    
Si      218.5499911         0.000000000         0.000000000         0.000000000    
Si      220.8999910         0.000000000         0.000000000         0.000000000    
Si      223.2499909         0.000000000         0.000000000         0.000000000    
Si      225.5999908         0.000000000         0.000000000         0.000000000    
Si      227.9499907         0.000000000         0.000000000         0.000000000    
Si      230.2999907         0.000000000         0.000000000         0.000000000    
Si      232.6499906         0.000000000         0.000000000         0.000000000    
         100
timestep  100 boxsize      235.0000        0.0000        0.0000
Si     0.2860872995E-01     0.000000000         0.000000000        0.2767048234E-01
Si      2.262584201         0.000000000         0.000000000        0.2288996315E-02
Si      4.700366650         0.000000000         0.000000000        0.4639632497E-02
Si      7.255593549         0.000000000         0.000000000        0.6238353879E-02
Si      9.764179209         0.000000000         0.000000000        0.2425726786E-02
Si      12.13894998         0.000000000         0.000000000        0.1491420931E-03
Si      14.51921831         0.000000000         0.000000000        0.3885862952E-02
Si      16.66311212         0.000000000         0.000000000        0.5473215496E-02
Si      18.86966136         0.000000000         0.000000000        0.2126517879E-02
Si      21.15662777         0.000000000         0.000000000        0.6170376766E-02
Si      23.74211478         0.000000000         0.000000000        0.1366499451E-01
Si      25.78788900         0.000000000         0.000000000        0.4755698568E-01
Si      27.41690846         0.000000000         0.000000000        0.4374092924E-01
Si      29.54632477         0.000000000         0.000000000        0.1682856398E-01
Si      32.26408376         0.000000000         0.000000000        0.3780136594E-01
Si      35.10144418         0.000000000         0.000000000        0.3571788900E-01
Si      37.10997126         0.000000000         0.000000000        0.1502001988E-01
Si      39.67402768         0.000000000         0.000000000        0.2841106547E-01
Si      42.50989404         0.000000000         0.000000000        0.2406729993E-01
Si      44.88603831         0.000000000         0.000000000        0.3758197160E-03
Si      47.18075458         0.000000000         0.000000000        0.3421449334E-02
Si      49.69818455         0.000000000         0.000000000        0.2597354026E-01
Si      51.52867534         0.000000000         0.000000000        0.2904806668E-01
Si      54.11997932         0.000000000         0.000000000        0.8172842559E-02
Si      56.62378194         0.000000000         0.000000000        0.2248263320E-02
Si      58.91876641         0.000000000         0.000000000        0.6831109400E-02
Si      60.99327209         0.000000000         0.000000000        0.8264901931E-02
Si      63.19798272         0.000000000         0.000000000        0.1173672172E-01
Si      65.20590359         0.000000000         0.000000000        0.1007133239E-01
Si      67.54279460         0.000000000         0.000000000        0.1195559125E-03
Si      69.93771720         0.000000000         0.000000000        0.8598713017E-02
Si      72.57423590         0.000000000         0.000000000        0.8742385346E-02
Si      74.99358729         0.000000000         0.000000000        0.1403365362E-01
Si      77.70624268         0.000000000         0.000000000        0.1378409034E-01
Si      80.05566103         0.000000000         0.000000000        0.1129213467E-03
Si      82.43819292         0.000000000         0.000000000        0.2285833811E-02
Si      84.93966842         0.000000000         0.000000000        0.2993917498E-02
Si      87.19260459         0.000000000         0.000000000        0.7205349636E-02
Si      89.27463132         0.000000000         0.000000000        0.7415123099E-02
Si      91.71712255         0.000000000         0.000000000        0.2210727601E-01
Si      93.56007065         0.000000000         0.000000000        0.2464598566E-01
Si      95.71147554         0.000000000         0.000000000        0.2339161078E-01
Si      98.50016672         0.000000000         0.000000000        0.2456617002E-01
Si      101.0790041         0.000000000         0.000000000        0.4913635427E-02
Si      103.4808617         0.000000000         0.000000000        0.7574303915E-02
Si      106.0992160         0.000000000         0.000000000        0.9905530051E-02
Si      108.2875807         0.000000000         0.000000000        0.2765102285E-02
Si      110.5804249         0.000000000         0.000000000        0.2914853925E-03
Si      112.9102823         0.000000000         0.000000000        0.1120296951E-02
Si      115.1465506         0.000000000         0.000000000        0.5914090719E-02
Si      117.2631985         0.000000000         0.000000000        0.5512708543E-02
Si      119.6940686         0.000000000         0.000000000        0.2265003605E-02
Si      122.1813430         0.000000000         0.000000000        0.6061977313E-02
Si      124.7411419         0.000000000         0.000000000        0.7773199061E-02
Si      126.9050161         0.000000000         0.000000000        0.5948467348E-02
Si      129.4214315         0.000000000         0.000000000        0.7027144277E-02
Si      131.9818099         0.000000000         0.000000000        0.7048540938E-02
Si      134.1679194         0.000000000         0.000000000        0.8964488383E-02
Si      136.7644393         0.000000000         0.000000000        0.6290024622E-02
Si      139.1224079         0.000000000         0.000000000        0.1774733731E-02
Si      141.3272089         0.000000000         0.000000000        0.5438286991E-02
Si      143.4726132         0.000000000         0.000000000        0.3996659533E-02
Si      145.8835300         0.000000000         0.000000000        0.1000199820E-02
Si      148.3095906         0.000000000         0.000000000        0.3624937662E-01
Si      149.9910675         0.000000000         0.000000000        0.4290465959E-01
Si      152.6154532         0.000000000         0.000000000        0.3536828201E-01
Si      155.4869643         0.000000000         0.000000000        0.3072567761E-01
Si      157.6657418         0.000000000         0.000000000        0.3096890886E-01
Si      159.4191087         0.000000000         0.000000000        0.3255416884E-01
Si      161.9836739         0.000000000         0.000000000        0.3170030015E-01
Si      164.8464416         0.000000000         0.000000000        0.2937350205E-01
Si      167.0541399         0.000000000         0.000000000        0.2144349755E-01
Si      168.9128802         0.000000000         0.000000000        0.2021117631E-01
Si      171.1719936         0.000000000         0.000000000        0.9677632244E-02
Si      173.8313112         0.000000000         0.000000000        0.1971098519E-01
Si      176.5041638         0.000000000         0.000000000        0.4150974409E-01
Si      178.2349621         0.000000000         0.000000000        0.3148027731E-01
Si      180.5018253         0.000000000         0.000000000        0.4522256287E-01
Si      183.4978356         0.000000000         0.000000000        0.5201597652E-01
Si      186.1304480         0.000000000         0.000000000        0.2859428578E-01
Si      187.9813470         0.000000000         0.000000000        0.2442331622E-01
Si      190.5006303         0.000000000         0.000000000        0.2291310508E-01
Si      192.3695037         0.000000000         0.000000000        0.1963715853E-01
Si      194.7442872         0.000000000         0.000000000        0.2498565539E-01
Si      197.5918096         0.000000000         0.000000000        0.4433402784E-01
Si      200.3888816         0.000000000         0.000000000        0.1987629053E-01
Si      202.8074468         0.000000000         0.000000000        0.1488417361E-01
Si      204.7498306         0.000000000         0.000000000        0.1975072084E-01
Si      207.3238287         0.000000000         0.000000000        0.5619295104E-02
Si      209.6240175         0.000000000         0.000000000        0.2667813780E-02
Si      211.8064881         0.000000000         0.000000000        0.6954628093E-02
Si      213.9207609         0.000000000         0.000000000        0.1852094489E-01
Si      215.8675635         0.000000000         0.000000000        0.2227106442E-01
Si      218.5008459         0.000000000         0.000000000        0.9947900379E-02
Si      220.9890373         0.000000000         0.000000000        0.3821277776E-02
Si      223.1760099         0.000000000         0.000000000        0.1693517591E-01
Si      225.1090557         0.000000000         0.000000000        0.1551639552E-01
Si      227.5389815         0.000000000         0.000000000        0.5893560504E-02
Si      229.6509409         0.000000000         0.000000000        0.7969467047E-02
Si      232.1815417         0.000000000         0.000000000        0.2901801434E-01
         100
timestep  200 boxsize      235.0000        0.0000        0.0000
Si      234.2881887         0.000000000         0.000000000        0.4703635922E-01
Si      2.260382496         0.000000000         0.000000000        0.4826869090E-01
Si      4.897966954         0.000000000         0.000000000        0.9202670475E-02
Si      7.385170907         0.000000000         0.000000000        0.4917136132E-02
Si      9.917777326         0.000000000         0.000000000        0.6068279424E-02
Si      12.44341363         0.000000000         0.000000000        0.5766457481E-02
Si      14.61787147         0.000000000         0.000000000        0.2864149958E-02
Si      16.93499538         0.000000000         0.000000000        0.2167679423E-02
Si      19.13646140         0.000000000         0.000000000        0.2223206782E-02
Si      21.51822138         0.000000000         0.000000000        0.3536818800E-01
Si      23.19196242         0.000000000         0.000000000        0.4296162705E-01
Si      25.23605845         0.000000000         0.000000000        0.1636304909E-01
Si      27.27530386         0.000000000         0.000000000        0.9264450120E-02
Si      29.54388773         0.000000000         0.000000000        0.9579924907E-03
Si      31.82022249         0.000000000         0.000000000        0.4797181448E-02
Si      33.95029517         0.000000000         0.000000000        0.8793653819E-01
Si      37.17689253         0.000000000         0.000000000        0.9177306787E-01
Si      39.82651166         0.000000000         0.000000000        0.9163924865E-02
Si      42.07849310         0.000000000         0.000000000        0.2566492198E-01
Si      44.92521854         0.000000000         0.000000000        0.3336943625E-01
Si      47.57127997         0.000000000         0.000000000        0.3529549663E-01
Si      49.34956960         0.000000000         0.000000000        0.5294671531E-01
Si      52.20380339         0.000000000         0.000000000        0.4201247661E-01
Si      54.12214036         0.000000000         0.000000000        0.1580890721E-01
Si      56.46350562         0.000000000         0.000000000        0.2961535272E-03
Si      58.75984934         0.000000000         0.000000000        0.1367556368E-02
Si      60.99793966         0.000000000         0.000000000        0.2840820182E-01
Si      62.76301634         0.000000000         0.000000000        0.2771443225E-01
Si      65.04525475         0.000000000         0.000000000        0.5071513529E-02
Si      67.16765966         0.000000000         0.000000000        0.8915816670E-02
Si      69.71991497         0.000000000         0.000000000        0.4994916704E-02
Si      72.17265472         0.000000000         0.000000000        0.2926988893E-01
Si      75.04050005         0.000000000         0.000000000        0.2854823727E-01
Si      77.37912533         0.000000000         0.000000000        0.1806487428E-01
Si      80.14993712         0.000000000         0.000000000        0.2306709573E-01
Si      82.73483045         0.000000000         0.000000000        0.7524127734E-02
Si      84.91481936         0.000000000         0.000000000        0.2565145744E-02
Si      87.23489333         0.000000000         0.000000000        0.4765419431E-03
Si      89.64542408         0.000000000         0.000000000        0.6205504911E-01
Si      91.07549976         0.000000000         0.000000000        0.6280238482E-01
Si      93.53901517         0.000000000         0.000000000        0.3403070598E-02
Si      96.04453055         0.000000000         0.000000000        0.9915358008E-02
Si      98.09560429         0.000000000         0.000000000        0.2388993420E-01
Si      100.8479093         0.000000000         0.000000000        0.4442745625E-01
Si      103.7236866         0.000000000         0.000000000        0.3142436524E-01
Si      105.8878686         0.000000000         0.000000000        0.1023096494E-01
Si      108.5031852         0.000000000         0.000000000        0.7999351141E-02
Si      110.7506315         0.000000000         0.000000000        0.5050602616E-02
Si      112.8809707         0.000000000         0.000000000        0.7443904474E-02
Si      115.0351829         0.000000000         0.000000000        0.3943404552E-02
Si      117.4609574         0.000000000         0.000000000        0.1310856955E-02
Si      119.7216495         0.000000000         0.000000000        0.2542759049E-02
Si      122.2006639         0.000000000         0.000000000        0.2332476748E-02
Si      124.4780707         0.000000000         0.000000000        0.2282064334E-01
Si      127.2978198         0.000000000         0.000000000        0.2226759945E-01
Si      129.6603478         0.000000000         0.000000000        0.1280483540E-03
Si      131.9780444         0.000000000         0.000000000        0.2423911314E-01
Si      134.8123803         0.000000000         0.000000000        0.3009269039E-01
Si      136.9047152         0.000000000         0.000000000        0.6252639069E-02
Si      139.3031458         0.000000000         0.000000000        0.6668644461E-03
Si      141.5926296         0.000000000         0.000000000        0.3888190722E-03
Si      143.9496135         0.000000000         0.000000000        0.5281105174E-02
Si      146.0454796         0.000000000         0.000000000        0.3137638801E-01
Si      147.8257997         0.000000000         0.000000000        0.5644507402E-01
Si      150.7265211         0.000000000         0.000000000        0.3277253416E-01
Si      152.9072422         0.000000000         0.000000000        0.1815119264E-01
Si      154.8132569         0.000000000         0.000000000        0.1913896873E-01
Si      157.3537116         0.000000000         0.000000000        0.1871192679E-01
Si      160.1104435         0.000000000         0.000000000        0.1671386774E-01
Si      162.3268053         0.000000000         0.000000000        0.1980644601E-01
Si      164.1980169         0.000000000         0.000000000        0.2136605179E-01
Si      166.7215279         0.000000000         0.000000000        0.3527321461E-02
Si      169.1594603         0.000000000         0.000000000        0.6742999305E-03
Si      171.4750263         0.000000000         0.000000000        0.1036549436E-02
Si      173.7115249         0.000000000         0.000000000        0.1917877703E-01
Si      175.5899115         0.000000000         0.000000000        0.5251730052E-01
Si      178.5277848         0.000000000         0.000000000        0.4492007116E-01
Si      181.2084252         0.000000000         0.000000000        0.2772014984E-01
Si      183.0996789         0.000000000         0.000000000        0.1986574885E-01
Si      185.6193173         0.000000000         0.000000000        0.4830763751E-01
Si      188.6311496         0.000000000         0.000000000        0.1266217199    
Si      189.9104335         0.000000000         0.000000000        0.9710953923E-01
Si      192.6624281         0.000000000         0.000000000        0.2237991781E-01
Si      195.2760751         0.000000000         0.000000000        0.7581796063E-02
Si      197.7359862         0.000000000         0.000000000        0.6115510973E-02
Si      200.3059469         0.000000000         0.000000000        0.1215366463E-01
Si      202.9388264         0.000000000         0.000000000        0.3014841931E-01
Si      205.7667857         0.000000000         0.000000000        0.5301384485E-01
Si      207.5030147         0.000000000         0.000000000        0.3008824467E-01
Si      209.8465786         0.000000000         0.000000000        0.4003951907E-02
Si      211.9826344         0.000000000         0.000000000        0.1826587059E-01
Si      213.9217687         0.000000000         0.000000000        0.1722519256E-01
Si      216.4459043         0.000000000         0.000000000        0.2432462135E-01
Si      218.2824596         0.000000000         0.000000000        0.2165410860E-01
Si      220.5643611         0.000000000         0.000000000        0.1343878374E-02
Si      222.8118079         0.000000000         0.000000000        0.1281286654E-02
Si      225.2100105         0.000000000         0.000000000        0.3837073259E-01
Si      226.8605013         0.000000000         0.000000000        0.5458806584E-01
Si      229.6189694         0.000000000         0.000000000        0.2172078618E-01
Si      232.1984064         0.000000000         0.000000000        0.1140345623E-01
         100
timestep  300 boxsize      235.0000        0.0000        0.0000
Si      234.6718082         0.000000000         0.000000000        0.3802057804E-01
Si      1.930847500         0.000000000         0.000000000        0.2287973212E-01
Si      4.740599702         0.000000000         0.000000000        0.3916432695E-01
Si      7.514647270         0.000000000         0.000000000        0.1836537040E-01
Si      9.978657308         0.000000000         0.000000000        0.1583562472E-02
Si      12.26894996         0.000000000         0.000000000        0.3453402930E-02
Si      14.80178330         0.000000000         0.000000000        0.3249930198E-02
Si      17.11808592         0.000000000         0.000000000        0.4166514378E-03
Si      19.51912933         0.000000000         0.000000000        0.4745012095E-01
Si      21.07490166         0.000000000         0.000000000        0.6605234477E-01
Si      22.94524373         0.000000000         0.000000000        0.3809074398E-01
Si      24.81257523         0.000000000         0.000000000        0.2487107168E-01
Si      27.40418511         0.000000000         0.000000000        0.6315056308E-02
Si      29.66654534         0.000000000         0.000000000        0.2865970947E-01
Si      31.43093210         0.000000000         0.000000000        0.5618002028E-01
Si      34.30363792         0.000000000         0.000000000        0.2994384398E-01
Si      36.50913843         0.000000000         0.000000000        0.2673833736E-01
Si      39.35304539         0.000000000         0.000000000        0.6858022916E-01
Si      42.36093768         0.000000000         0.000000000        0.4458352629E-01
Si      44.60306056         0.000000000         0.000000000        0.1043360399E-02
Si      46.98524659         0.000000000         0.000000000        0.5807276923E-01
Si      50.08067721         0.000000000         0.000000000        0.8390286308E-01
Si      51.86110224         0.000000000         0.000000000        0.3431185029E-01
Si      54.50266287         0.000000000         0.000000000        0.3780103538E-01
Si      56.24660716         0.000000000         0.000000000        0.3178640600E-01
Si      58.42376116         0.000000000         0.000000000        0.8843983336E-02
Si      60.49949143         0.000000000         0.000000000        0.6464330607E-02
Si      62.85993146         0.000000000         0.000000000        0.9673090247E-02
Si      64.87298317         0.000000000         0.000000000        0.1209485300E-01
Si      67.38053672         0.000000000         0.000000000        0.4161104316E-02
Si      69.59744415         0.000000000         0.000000000        0.1361361053E-01
Si      72.28401924         0.000000000         0.000000000        0.1375705323E-01
Si      74.49799556         0.000000000         0.000000000        0.4190813195E-01
Si      77.46273140         0.000000000         0.000000000        0.4145173872E-01
Si      79.94221096         0.000000000         0.000000000        0.2932008764E-02
Si      82.41415602         0.000000000         0.000000000        0.6084323018E-02
Si      84.99010909         0.000000000         0.000000000        0.4985002623E-02
Si      87.26887364         0.000000000         0.000000000        0.2663716948E-01
Si      89.04211496         0.000000000         0.000000000        0.2756669919E-01
Si      91.52423931         0.000000000         0.000000000        0.4792830134E-02
Si      93.66942118         0.000000000         0.000000000        0.3918562828E-02
Si      95.94612819         0.000000000         0.000000000        0.1301494508E-01
Si      98.65861155         0.000000000         0.000000000        0.1595144939E-01
Si      100.8070749         0.000000000         0.000000000        0.4318214950E-02
Si      103.0525311         0.000000000         0.000000000        0.4082746885E-01
Si      106.0235040         0.000000000         0.000000000        0.4139612291E-01
Si      108.2481441         0.000000000         0.000000000        0.2207314089E-02
Si      110.6830829         0.000000000         0.000000000        0.2214272526E-02
Si      112.9091756         0.000000000         0.000000000        0.1505231022E-02
Si      115.2709739         0.000000000         0.000000000        0.5167828878E-03
Si      117.5461423         0.000000000         0.000000000        0.1844877003E-02
Si      120.0127691         0.000000000         0.000000000        0.6922553808E-02
Si      122.1141573         0.000000000         0.000000000        0.2086080422E-01